 Entering Gaussian System, Link 0=/usr/local/g16/g16

                         Standard orientation:
 ---------------------------------------------------------------------
 Center     Atomic      Atomic             Coordinates (Angstroms)
 Number     Number       Type             X           Y           Z
 ---------------------------------------------------------------------
      1          6           0        0.000000    0.662336   -0.325353
      2          6           0        0.000000    0.000000    0.941316
      3          6           0       -0.000000   -0.662336   -0.325353
      4          1           0        0.000000   -1.597488   -0.871827
      5          1           0        0.000000    1.597488   -0.871827
 ---------------------------------------------------------------------
    49 basis functions,    92 primitive gaussians,    49 cartesian basis functions
    10 alpha electrons       10 beta electrons
 **********************************************************************

            Population analysis using the SCF Density.

 **********************************************************************
 Harmonic frequencies (cm**-1), IR intensities (KM/Mole), Raman scattering
 activities (A**4/AMU), depolarization ratios for plane and unpolarized
 incident light, reduced masses (AMU), force constants (mDyne/A),
 and normal coordinates:
                      1                      2                      3
                     B1                     B2                     A1
 Frequencies --    790.4860               890.9168               902.8064
 Red. masses --      1.1924                 1.6063                 1.1260
 Frc consts  --      0.4390                 0.7512                 0.5407
 IR Inten    --     15.3023                 2.9436                18.1334
  Atom  AN      X      Y      Z        X      Y      Z        X      Y      Z
     1   6    -0.08  -0.00   0.00    -0.00   0.11  -0.02     0.00   0.02  -0.00
     2   6     0.05   0.00  -0.00     0.00  -0.17   0.00    -0.00  -0.00  -0.10
     3   6    -0.08  -0.00  -0.00    -0.00   0.11   0.02     0.00  -0.02  -0.00
     4   1     0.70  -0.00  -0.00     0.00  -0.25   0.64    -0.00  -0.37   0.60
     5   1     0.70   0.00   0.00     0.00  -0.25  -0.64    -0.00   0.37   0.60
                      4                      5                      6
                     A2                     B2                     A1
 Frequencies --   1002.8420              1075.6057              1317.9780
 Red. masses --      1.4411                 3.6822                 6.5525
 Frc consts  --      0.8539                 2.5099                 6.7062
 IR Inten    --      0.0000                14.0114                50.0752
  Atom  AN      X      Y      Z        X      Y      Z        X      Y      Z
     1   6     0.14   0.00   0.00    -0.00  -0.06   0.31     0.00  -0.14  -0.30
     2   6     0.00   0.00  -0.00    -0.00   0.21   0.00     0.00  -0.00   0.53
     3   6    -0.14  -0.00  -0.00     0.00  -0.06  -0.31    -0.00   0.14  -0.30
     4   1     0.69  -0.00  -0.00    -0.00  -0.47   0.39     0.00  -0.29   0.40
     5   1    -0.69  -0.00  -0.00     0.00  -0.47  -0.39    -0.00   0.29   0.40
                      7                      8                      9
                     A1                     B2                     A1
 Frequencies --   1663.0126              3243.4668              3277.0983
 Red. masses --      5.4835                 1.0866                 1.1365
 Frc consts  --      8.9351                 6.7349                 7.1911
 IR Inten    --      0.2366                 0.7165                 0.2249
  Atom  AN      X      Y      Z        X      Y      Z        X      Y      Z
     1   6    -0.00   0.43  -0.05     0.00  -0.05   0.03    -0.00   0.07  -0.03
     2   6    -0.00  -0.00   0.16    -0.00   0.00  -0.00     0.00   0.00   0.01
     3   6     0.00  -0.43  -0.05    -0.00  -0.05  -0.03    -0.00  -0.07  -0.03
     4   1    -0.00  -0.46  -0.29     0.00   0.61   0.35     0.00   0.61   0.36
     5   1     0.00   0.46  -0.29    -0.00   0.61  -0.35     0.00  -0.61   0.36

